LAMMPS data file. CGCMM style. atom_style full generated by VMD/TopoTools v1.7 
 1602 atoms
 0 bonds
 0 angles
 0 dihedrals
 0 impropers
 6 atom types
 0 bond types
 0 angle types
 0 dihedral types
 0 improper types
 0.0000 27.062  xlo xhi
 0.0000 18.556  ylo yhi
 0.0000 60.794  zlo zhi

# Pair Coeffs
#
# 1  C
# 2  F
# 3  H
# 4  N
# 5  O
# 6  Ti

 Masses

 1 12.010700 # C
 2 18.998404 # F
 3 1.007940 # H
 4 14.006700 # N
 5 15.999400 # O
 6 47.867001 # Ti

 Atoms # full

1 1 5 0.000000 4.730000 1.940000 10.960000 # O TiO
2 1 5 0.000000 0.240000 0.044000 11.020000 # O TiO
3 1 5 0.000000 13.710000 1.910000 11.000000 # O TiO
4 1 5 0.000000 9.240000 0.034000 11.060000 # O TiO
5 1 5 0.000000 22.700001 1.920000 11.090000 # O TiO
6 1 5 0.000000 18.190001 0.014000 11.040000 # O TiO
7 1 5 0.000000 4.680000 5.680000 11.010000 # O TiO
8 1 5 0.000000 0.140000 3.700000 10.990000 # O TiO
9 1 5 0.000000 13.670000 5.650000 11.020000 # O TiO
10 1 5 0.000000 9.190000 3.650000 11.010000 # O TiO
11 1 5 0.000000 22.639999 5.640000 11.110000 # O TiO
12 1 5 0.000000 18.150000 3.630000 11.070000 # O TiO
13 1 5 0.000000 4.670000 9.360000 11.040000 # O TiO
14 1 5 0.000000 0.130000 7.500000 10.980000 # O TiO
15 1 5 0.000000 13.660000 9.340000 11.030000 # O TiO
16 1 5 0.000000 9.190000 7.490000 11.010000 # O TiO
17 1 5 0.000000 22.639999 9.320000 11.110000 # O TiO
18 1 5 0.000000 18.150000 7.470000 11.060000 # O TiO
19 1 5 0.000000 4.680000 13.060000 11.070000 # O TiO
20 1 5 0.000000 0.130000 11.200000 11.000000 # O TiO
21 1 5 0.000000 13.660000 13.040000 11.040000 # O TiO
22 1 5 0.000000 9.180000 11.190000 11.030000 # O TiO
23 1 5 0.000000 22.639999 13.010000 11.110000 # O TiO
24 1 5 0.000000 18.150000 11.170000 11.060000 # O TiO
25 1 5 0.000000 4.680000 16.889999 11.120000 # O TiO
26 1 5 0.000000 0.140000 14.900000 11.010000 # O TiO
27 1 5 0.000000 13.670000 16.860001 11.070000 # O TiO
28 1 5 0.000000 9.180000 14.880000 11.060000 # O TiO
29 1 5 0.000000 22.650000 16.840000 11.110000 # O TiO
30 1 5 0.000000 18.150000 14.850000 11.060000 # O TiO
31 1 6 0.000000 7.500000 0.004000 11.860000 # Ti TiO
32 1 6 0.000000 3.000000 1.970000 11.740000 # Ti TiO
33 1 6 0.000000 25.350000 7.470000 11.880000 # Ti TiO
34 1 6 0.000000 20.879999 9.320000 11.890000 # Ti TiO
35 1 6 0.000000 16.420000 3.770000 11.850000 # Ti TiO
36 1 6 0.000000 11.930000 5.640000 11.820000 # Ti TiO
37 1 6 0.000000 7.440000 11.200000 11.840000 # Ti TiO
38 1 6 0.000000 2.960000 13.050000 11.840000 # Ti TiO
39 1 6 0.000000 25.450001 18.490000 11.830000 # Ti TiO
40 1 6 0.000000 20.950001 1.950000 11.860000 # Ti TiO
41 1 6 0.000000 16.400000 11.170000 11.860000 # Ti TiO
42 1 6 0.000000 11.930000 13.030000 11.850000 # Ti TiO
43 1 6 0.000000 25.370001 3.780000 11.900000 # Ti TiO
44 1 6 0.000000 20.879999 5.630000 11.880000 # Ti TiO
45 1 6 0.000000 25.340000 11.160000 11.880000 # Ti TiO
46 1 6 0.000000 20.889999 13.010000 11.890000 # Ti TiO
47 1 6 0.000000 16.450001 18.540001 11.830000 # Ti TiO
48 1 6 0.000000 11.970000 1.960000 11.790000 # Ti TiO
49 1 6 0.000000 7.450000 14.890000 11.870000 # Ti TiO
50 1 6 0.000000 2.970000 16.750000 11.880000 # Ti TiO
51 1 6 0.000000 7.450000 7.500000 11.820000 # Ti TiO
52 1 6 0.000000 2.950000 9.350000 11.820000 # Ti TiO
53 1 6 0.000000 16.410000 14.860000 11.860000 # Ti TiO
54 1 6 0.000000 11.940000 16.730000 11.870000 # Ti TiO
55 1 6 0.000000 7.450000 3.790000 11.790000 # Ti TiO
56 1 6 0.000000 2.960000 5.660000 11.780000 # Ti TiO
57 1 6 0.000000 25.350000 14.840000 11.870000 # Ti TiO
58 1 6 0.000000 20.900000 16.709999 11.880000 # Ti TiO
59 1 6 0.000000 16.410000 7.480000 11.850000 # Ti TiO
60 1 6 0.000000 11.920000 9.330000 11.830000 # Ti TiO
61 1 5 0.000000 2.750000 7.510000 11.680000 # O TiO
62 1 5 0.000000 16.260000 1.940000 11.750000 # O TiO
63 1 5 0.000000 16.250000 13.020000 11.750000 # O TiO
64 1 5 0.000000 11.780000 3.790000 11.720000 # O TiO
65 1 5 0.000000 11.770000 11.180000 11.730000 # O TiO
66 1 5 0.000000 2.750000 0.014000 11.730000 # O TiO
67 1 5 0.000000 16.250000 9.330000 11.740000 # O TiO
68 1 5 0.000000 7.310000 5.640000 11.710000 # O TiO
69 1 5 0.000000 25.180000 13.000000 11.830000 # O TiO
70 1 5 0.000000 11.770000 7.490000 11.720000 # O TiO
71 1 5 0.000000 20.730000 11.170000 11.780000 # O TiO
72 1 5 0.000000 25.230000 1.910000 11.830000 # O TiO
73 1 5 0.000000 25.200001 5.620000 11.840000 # O TiO
74 1 5 0.000000 2.760000 3.820000 11.630000 # O TiO
75 1 5 0.000000 7.290000 16.730000 11.790000 # O TiO
76 1 5 0.000000 25.190001 9.320000 11.830000 # O TiO
77 1 5 0.000000 2.770000 14.910000 11.750000 # O TiO
78 1 5 0.000000 20.740000 3.780000 11.780000 # O TiO
79 1 5 0.000000 20.730000 7.470000 11.780000 # O TiO
80 1 5 0.000000 11.790000 0.004000 11.790000 # O TiO
81 1 5 0.000000 16.250000 16.709999 11.770000 # O TiO
82 1 5 0.000000 20.740000 18.549999 11.780000 # O TiO
83 1 5 0.000000 11.790000 14.880000 11.760000 # O TiO
84 1 5 0.000000 7.290000 1.950000 11.700000 # O TiO
85 1 5 0.000000 7.290000 13.040000 11.750000 # O TiO
86 1 5 0.000000 7.290000 9.350000 11.730000 # O TiO
87 1 5 0.000000 25.200001 16.680000 11.830000 # O TiO
88 1 5 0.000000 2.750000 11.200000 11.700000 # O TiO
89 1 5 0.000000 20.750000 14.870000 11.780000 # O TiO
90 1 5 0.000000 16.270000 5.620000 11.750000 # O TiO
91 1 5 0.000000 23.610001 11.160000 12.600000 # O TiO
92 1 5 0.000000 19.139999 1.920000 12.540000 # O TiO
93 1 5 0.000000 19.110001 9.320000 12.540000 # O TiO
94 1 5 0.000000 19.120001 13.010000 12.540000 # O TiO
95 1 5 0.000000 1.120000 5.640000 12.390000 # O TiO
96 1 5 0.000000 1.120000 9.350000 12.410000 # O TiO
97 1 5 0.000000 1.160000 1.970000 12.410000 # O TiO
98 1 5 0.000000 10.170000 1.930000 12.490000 # O TiO
99 1 5 0.000000 5.670000 14.910000 12.540000 # O TiO
100 1 5 0.000000 5.680000 11.200000 12.510000 # O TiO
101 1 5 0.000000 23.610001 3.790000 12.570000 # O TiO
102 1 5 0.000000 1.130000 16.750000 12.460000 # O TiO
103 1 5 0.000000 23.660000 18.549999 12.580000 # O TiO
104 1 5 0.000000 1.120000 13.040000 12.430000 # O TiO
105 1 5 0.000000 14.640000 7.480000 12.500000 # O TiO
106 1 5 0.000000 14.650000 0.014000 12.540000 # O TiO
107 1 5 0.000000 14.630000 14.890000 12.530000 # O TiO
108 1 5 0.000000 19.100000 5.610000 12.530000 # O TiO
109 1 5 0.000000 10.160000 9.330000 12.500000 # O TiO
110 1 5 0.000000 10.170000 16.709999 12.540000 # O TiO
111 1 5 0.000000 14.630000 11.180000 12.510000 # O TiO
112 1 5 0.000000 14.640000 3.790000 12.500000 # O TiO
113 1 5 0.000000 5.680000 3.820000 12.450000 # O TiO
114 1 5 0.000000 10.160000 13.020000 12.510000 # O TiO
115 1 5 0.000000 23.600000 14.870000 12.590000 # O TiO
116 1 5 0.000000 5.700000 0.044000 12.570000 # O TiO
117 1 5 0.000000 10.150000 5.620000 12.480000 # O TiO
118 1 5 0.000000 19.120001 16.700001 12.540000 # O TiO
119 1 5 0.000000 23.610001 7.470000 12.590000 # O TiO
120 1 5 0.000000 5.680000 7.500000 12.480000 # O TiO
121 1 6 0.000000 5.570000 2.000000 12.640000 # Ti TiO
122 1 6 0.000000 5.600000 16.760000 12.740000 # Ti TiO
123 1 6 0.000000 5.590000 9.340000 12.680000 # Ti TiO
124 1 6 0.000000 1.120000 14.890000 12.670000 # Ti TiO
125 1 6 0.000000 5.600000 5.660000 12.650000 # Ti TiO
126 1 6 0.000000 1.110000 7.490000 12.620000 # Ti TiO
127 1 6 0.000000 14.540000 1.970000 12.690000 # Ti TiO
128 1 6 0.000000 14.550000 13.030000 12.700000 # Ti TiO
129 1 6 0.000000 23.510000 9.320000 12.760000 # Ti TiO
130 1 6 0.000000 10.070000 11.180000 12.680000 # Ti TiO
131 1 6 0.000000 23.510000 5.630000 12.760000 # Ti TiO
132 1 6 0.000000 14.560000 16.730000 12.710000 # Ti TiO
133 1 6 0.000000 19.030001 7.470000 12.720000 # Ti TiO
134 1 6 0.000000 10.080000 14.870000 12.710000 # Ti TiO
135 1 6 0.000000 14.560000 5.640000 12.680000 # Ti TiO
136 1 6 0.000000 19.040001 3.760000 12.710000 # Ti TiO
137 1 6 0.000000 1.130000 3.790000 12.600000 # Ti TiO
138 1 6 0.000000 10.080000 3.770000 12.650000 # Ti TiO
139 1 6 0.000000 1.110000 0.034000 12.730000 # Ti TiO
140 1 6 0.000000 23.510000 13.010000 12.760000 # Ti TiO
141 1 6 0.000000 14.550000 9.330000 12.690000 # Ti TiO
142 1 6 0.000000 23.530001 16.719999 12.740000 # Ti TiO
143 1 6 0.000000 19.030001 11.170000 12.720000 # Ti TiO
144 1 6 0.000000 19.040001 14.860000 12.720000 # Ti TiO
145 1 6 0.000000 23.530001 1.950000 12.780000 # Ti TiO
146 1 6 0.000000 5.590000 13.050000 12.700000 # Ti TiO
147 1 6 0.000000 10.070000 7.480000 12.670000 # Ti TiO
148 1 6 0.000000 1.110000 11.200000 12.640000 # Ti TiO
149 1 6 0.000000 10.080000 18.540001 12.740000 # Ti TiO
150 1 6 0.000000 19.030001 18.530001 12.720000 # Ti TiO
151 1 5 0.000000 26.309999 7.470000 13.620000 # O TiO
152 1 5 0.000000 8.350000 0.044000 13.570000 # O TiO
153 1 5 0.000000 8.360000 14.860000 13.550000 # O TiO
154 1 5 0.000000 12.830000 9.330000 13.520000 # O TiO
155 1 5 0.000000 17.309999 11.170000 13.550000 # O TiO
156 1 5 0.000000 12.840000 5.640000 13.520000 # O TiO
157 1 5 0.000000 8.360000 3.650000 13.480000 # O TiO
158 1 5 0.000000 3.820000 9.350000 13.530000 # O TiO
159 1 5 0.000000 17.309999 7.470000 13.550000 # O TiO
160 1 5 0.000000 21.790001 5.640000 13.580000 # O TiO
161 1 5 0.000000 12.850000 16.860001 13.550000 # O TiO
162 1 5 0.000000 3.830000 13.040000 13.560000 # O TiO
163 1 5 0.000000 3.810000 2.040000 13.460000 # O TiO
164 1 5 0.000000 21.799999 13.020000 13.590000 # O TiO
165 1 5 0.000000 17.320000 14.850000 13.560000 # O TiO
166 1 5 0.000000 26.270000 0.044000 13.620000 # O TiO
167 1 5 0.000000 8.360000 7.480000 13.510000 # O TiO
168 1 5 0.000000 8.360000 11.180000 13.530000 # O TiO
169 1 5 0.000000 26.299999 11.170000 13.620000 # O TiO
170 1 5 0.000000 17.320000 3.640000 13.530000 # O TiO
171 1 5 0.000000 26.330000 3.690000 13.620000 # O TiO
172 1 5 0.000000 12.810000 1.910000 13.510000 # O TiO
173 1 5 0.000000 21.820000 16.850000 13.570000 # O TiO
174 1 5 0.000000 21.790001 9.330000 13.590000 # O TiO
175 1 5 0.000000 3.830000 5.670000 13.500000 # O TiO
176 1 5 0.000000 21.790001 1.910000 13.580000 # O TiO
177 1 5 0.000000 26.299999 14.830000 13.600000 # O TiO
178 1 5 0.000000 17.290001 0.024000 13.550000 # O TiO
179 1 5 0.000000 3.840000 16.879999 13.590000 # O TiO
180 1 5 0.000000 12.840000 13.030000 13.540000 # O TiO
181 1 5 0.000000 1.720000 3.710000 14.520000 # O TiO
182 1 5 0.000000 1.740000 14.860000 14.590000 # O TiO
183 1 5 0.000000 6.270000 13.030000 14.510000 # O TiO
184 1 5 0.000000 15.240000 5.630000 14.490000 # O TiO
185 1 5 0.000000 24.230000 1.980000 14.570000 # O TiO
186 1 5 0.000000 1.800000 0.024000 14.610000 # O TiO
187 1 5 0.000000 6.270000 5.660000 14.460000 # O TiO
188 1 5 0.000000 1.730000 11.190000 14.560000 # O TiO
189 1 5 0.000000 24.209999 13.020000 14.570000 # O TiO
190 1 5 0.000000 24.209999 9.320000 14.570000 # O TiO
191 1 5 0.000000 15.240000 16.850000 14.510000 # O TiO
192 1 5 0.000000 24.200001 5.650000 14.570000 # O TiO
193 1 5 0.000000 15.250000 1.900000 14.470000 # O TiO
194 1 5 0.000000 15.240000 9.330000 14.490000 # O TiO
195 1 5 0.000000 19.709999 11.170000 14.530000 # O TiO
196 1 5 0.000000 10.780000 14.850000 14.510000 # O TiO
197 1 5 0.000000 6.270000 9.340000 14.480000 # O TiO
198 1 5 0.000000 19.709999 7.470000 14.530000 # O TiO
199 1 5 0.000000 10.750000 3.640000 14.450000 # O TiO
200 1 5 0.000000 6.270000 1.930000 14.420000 # O TiO
201 1 5 0.000000 15.250000 13.030000 14.500000 # O TiO
202 1 5 0.000000 10.800000 0.034000 14.520000 # O TiO
203 1 5 0.000000 10.770000 7.470000 14.470000 # O TiO
204 1 5 0.000000 19.700001 3.630000 14.510000 # O TiO
205 1 5 0.000000 24.219999 16.850000 14.550000 # O TiO
206 1 5 0.000000 6.260000 16.860001 14.540000 # O TiO
207 1 5 0.000000 1.730000 7.490000 14.550000 # O TiO
208 1 5 0.000000 10.770000 11.170000 14.480000 # O TiO
209 1 5 0.000000 19.740000 0.024000 14.500000 # O TiO
210 1 5 0.000000 19.719999 14.850000 14.530000 # O TiO
211 1 6 0.000000 13.520000 1.960000 15.290000 # Ti TiO
212 1 6 0.000000 4.560000 5.640000 15.300000 # Ti TiO
213 1 6 0.000000 13.530000 16.730000 15.350000 # Ti TiO
214 1 6 0.000000 9.060000 11.170000 15.330000 # Ti TiO
215 1 6 0.000000 17.990000 3.760000 15.340000 # Ti TiO
216 1 6 0.000000 18.010000 18.530001 15.320000 # Ti TiO
217 1 6 0.000000 13.530000 13.020000 15.340000 # Ti TiO
218 1 6 0.000000 9.080000 18.530001 15.340000 # Ti TiO
219 1 6 0.000000 22.459999 5.640000 15.390000 # Ti TiO
220 1 6 0.000000 26.940001 11.160000 15.500000 # Ti TiO
221 1 6 0.000000 26.930000 7.460000 15.500000 # Ti TiO
222 1 6 0.000000 26.930000 14.840000 15.480000 # Ti TiO
223 1 6 0.000000 27.000000 18.500000 15.450000 # Ti TiO
224 1 6 0.000000 4.570000 13.030000 15.350000 # Ti TiO
225 1 6 0.000000 4.570000 16.730000 15.380000 # Ti TiO
226 1 6 0.000000 18.000000 14.860000 15.360000 # Ti TiO
227 1 6 0.000000 17.990000 7.470000 15.350000 # Ti TiO
228 1 6 0.000000 9.060000 7.460000 15.310000 # Ti TiO
229 1 6 0.000000 22.480000 16.740000 15.370000 # Ti TiO
230 1 6 0.000000 22.490000 1.970000 15.360000 # Ti TiO
231 1 6 0.000000 22.459999 9.320000 15.400000 # Ti TiO
232 1 6 0.000000 4.560000 9.330000 15.330000 # Ti TiO
233 1 6 0.000000 13.530000 9.320000 15.330000 # Ti TiO
234 1 6 0.000000 18.000000 11.170000 15.360000 # Ti TiO
235 1 6 0.000000 9.040000 3.760000 15.280000 # Ti TiO
236 1 6 0.000000 26.920000 3.770000 15.500000 # Ti TiO
237 1 6 0.000000 22.469999 13.020000 15.400000 # Ti TiO
238 1 6 0.000000 4.540000 1.950000 15.230000 # Ti TiO
239 1 6 0.000000 13.520000 5.630000 15.320000 # Ti TiO
240 1 6 0.000000 9.060000 14.860000 15.350000 # Ti TiO
241 1 5 0.000000 17.910000 9.320000 15.530000 # O TiO
242 1 5 0.000000 4.440000 3.790000 15.440000 # O TiO
243 1 5 0.000000 8.970000 13.010000 15.520000 # O TiO
244 1 5 0.000000 17.920000 16.700001 15.530000 # O TiO
245 1 5 0.000000 26.840000 9.310000 15.600000 # O TiO
246 1 5 0.000000 13.430000 3.790000 15.500000 # O TiO
247 1 5 0.000000 13.450000 11.170000 15.510000 # O TiO
248 1 5 0.000000 4.430000 7.480000 15.470000 # O TiO
249 1 5 0.000000 26.850000 1.900000 15.590000 # O TiO
250 1 5 0.000000 13.460000 14.880000 15.510000 # O TiO
251 1 5 0.000000 26.830000 5.610000 15.590000 # O TiO
252 1 5 0.000000 4.440000 11.180000 15.490000 # O TiO
253 1 5 0.000000 13.440000 7.480000 15.500000 # O TiO
254 1 5 0.000000 8.980000 16.700001 15.520000 # O TiO
255 1 5 0.000000 22.379999 7.480000 15.570000 # O TiO
256 1 5 0.000000 8.980000 5.600000 15.470000 # O TiO
257 1 5 0.000000 22.379999 0.014000 15.530000 # O TiO
258 1 5 0.000000 17.910000 5.610000 15.510000 # O TiO
259 1 5 0.000000 13.440000 0.014000 15.520000 # O TiO
260 1 5 0.000000 4.450000 14.890000 15.530000 # O TiO
261 1 5 0.000000 17.889999 1.920000 15.480000 # O TiO
262 1 5 0.000000 26.830000 16.680000 15.520000 # O TiO
263 1 5 0.000000 26.850000 13.000000 15.610000 # O TiO
264 1 5 0.000000 8.980000 9.320000 15.500000 # O TiO
265 1 5 0.000000 22.370001 3.800000 15.560000 # O TiO
266 1 5 0.000000 4.440000 0.004000 15.530000 # O TiO
267 1 5 0.000000 8.940000 1.920000 15.440000 # O TiO
268 1 5 0.000000 22.400000 14.890000 15.570000 # O TiO
269 1 5 0.000000 17.920000 13.010000 15.550000 # O TiO
270 1 5 0.000000 22.389999 11.170000 15.590000 # O TiO
271 1 5 0.000000 2.830000 1.960000 16.209999 # O TiO
272 1 5 0.000000 11.800000 5.620000 16.260000 # O TiO
273 1 5 0.000000 16.299999 18.549999 16.270000 # O TiO
274 1 5 0.000000 11.810000 1.940000 16.240000 # O TiO
275 1 5 0.000000 25.209999 3.790000 16.360001 # O TiO
276 1 5 0.000000 11.830000 16.709999 16.280001 # O TiO
277 1 5 0.000000 7.350000 14.860000 16.290001 # O TiO
278 1 5 0.000000 16.280001 7.480000 16.260000 # O TiO
279 1 5 0.000000 16.280001 3.770000 16.260000 # O TiO
280 1 5 0.000000 2.860000 9.320000 16.309999 # O TiO
281 1 5 0.000000 25.230000 18.540001 16.280001 # O TiO
282 1 5 0.000000 25.230000 11.170000 16.360001 # O TiO
283 1 5 0.000000 25.230000 7.480000 16.370001 # O TiO
284 1 5 0.000000 2.860000 16.709999 16.330000 # O TiO
285 1 5 0.000000 7.350000 0.004000 16.270000 # O TiO
286 1 5 0.000000 16.299999 11.170000 16.299999 # O TiO
287 1 5 0.000000 7.360000 11.170000 16.290001 # O TiO
288 1 5 0.000000 20.760000 1.940000 16.290001 # O TiO
289 1 5 0.000000 25.219999 14.870000 16.350000 # O TiO
290 1 5 0.000000 2.840000 5.620000 16.250000 # O TiO
291 1 5 0.000000 20.770000 13.020000 16.350000 # O TiO
292 1 5 0.000000 11.830000 9.320000 16.270000 # O TiO
293 1 5 0.000000 7.330000 3.770000 16.170000 # O TiO
294 1 5 0.000000 20.730000 5.610000 16.299999 # O TiO
295 1 5 0.000000 11.830000 13.010000 16.280001 # O TiO
296 1 5 0.000000 20.770000 16.730000 16.290001 # O TiO
297 1 5 0.000000 20.750000 9.330000 16.320000 # O TiO
298 1 5 0.000000 2.860000 13.020000 16.340000 # O TiO
299 1 5 0.000000 16.290001 14.870000 16.299999 # O TiO
300 1 5 0.000000 7.360000 7.480000 16.260000 # O TiO
301 1 6 0.000000 16.150000 13.020000 16.200001 # Ti TiO
302 1 6 0.000000 16.139999 5.630000 16.190001 # Ti TiO
303 1 6 0.000000 16.090000 1.950000 16.190001 # Ti TiO
304 1 6 0.000000 20.610001 11.170000 16.230000 # Ti TiO
305 1 6 0.000000 2.760000 11.170000 16.270000 # Ti TiO
306 1 6 0.000000 11.680000 11.170000 16.180000 # Ti TiO
307 1 6 0.000000 25.070000 5.630000 16.290001 # Ti TiO
308 1 6 0.000000 2.760000 7.470000 16.260000 # Ti TiO
309 1 6 0.000000 11.650000 18.540001 16.230000 # Ti TiO
310 1 6 0.000000 7.210000 5.620000 16.160000 # Ti TiO
311 1 6 0.000000 11.660000 3.770000 16.139999 # Ti TiO
312 1 6 0.000000 25.090000 16.719999 16.250000 # Ti TiO
313 1 6 0.000000 16.139999 9.320000 16.180000 # Ti TiO
314 1 6 0.000000 20.600000 3.770000 16.209999 # Ti TiO
315 1 6 0.000000 20.580000 18.549999 16.209999 # Ti TiO
316 1 6 0.000000 20.629999 14.870000 16.230000 # Ti TiO
317 1 6 0.000000 2.730000 18.549999 16.379999 # Ti TiO
318 1 6 0.000000 11.670000 7.470000 16.160000 # Ti TiO
319 1 6 0.000000 25.040001 1.950000 16.309999 # Ti TiO
320 1 6 0.000000 16.150000 16.719999 16.190001 # Ti TiO
321 1 6 0.000000 25.090000 9.320000 16.290001 # Ti TiO
322 1 6 0.000000 2.740000 3.770000 16.200001 # Ti TiO
323 1 6 0.000000 7.130000 1.950000 16.129999 # Ti TiO
324 1 6 0.000000 11.690000 14.860000 16.200001 # Ti TiO
325 1 6 0.000000 7.220000 9.320000 16.170000 # Ti TiO
326 1 6 0.000000 7.220000 16.719999 16.219999 # Ti TiO
327 1 6 0.000000 7.220000 13.020000 16.190001 # Ti TiO
328 1 6 0.000000 20.600000 7.470000 16.240000 # Ti TiO
329 1 6 0.000000 25.080000 13.020000 16.290001 # Ti TiO
330 1 6 0.000000 2.760000 14.860000 16.299999 # Ti TiO
331 1 5 0.000000 1.020000 11.180000 17.190001 # O TiO
332 1 5 0.000000 9.910000 0.034000 17.040001 # O TiO
333 1 5 0.000000 5.370000 1.980000 16.920000 # O TiO
334 1 5 0.000000 0.980000 14.840000 17.170000 # O TiO
335 1 5 0.000000 9.950000 11.160000 16.990000 # O TiO
336 1 5 0.000000 18.870001 11.180000 17.020000 # O TiO
337 1 5 0.000000 5.450000 9.340000 16.969999 # O TiO
338 1 5 0.000000 23.330000 5.650000 17.049999 # O TiO
339 1 5 0.000000 18.840000 0.034000 17.010000 # O TiO
340 1 5 0.000000 23.350000 9.350000 17.049999 # O TiO
341 1 5 0.000000 9.940000 7.470000 16.969999 # O TiO
342 1 5 0.000000 14.350000 1.920000 16.990000 # O TiO
343 1 5 0.000000 0.960000 18.510000 17.209999 # O TiO
344 1 5 0.000000 23.270000 1.880000 17.049999 # O TiO
345 1 5 0.000000 9.920000 3.630000 16.930000 # O TiO
346 1 5 0.000000 23.370001 16.910000 17.010000 # O TiO
347 1 5 0.000000 5.450000 13.000000 17.000000 # O TiO
348 1 5 0.000000 5.430000 5.630000 16.930000 # O TiO
349 1 5 0.000000 1.010000 7.480000 17.180000 # O TiO
350 1 5 0.000000 18.850000 7.460000 17.030001 # O TiO
351 1 5 0.000000 14.420000 16.870001 16.990000 # O TiO
352 1 5 0.000000 14.420000 13.010000 17.000000 # O TiO
353 1 5 0.000000 14.390000 5.610000 16.990000 # O TiO
354 1 5 0.000000 18.879999 14.860000 17.030001 # O TiO
355 1 5 0.000000 5.450000 16.850000 17.000000 # O TiO
356 1 5 0.000000 23.350000 13.020000 17.070000 # O TiO
357 1 5 0.000000 14.410000 9.320000 16.990000 # O TiO
358 1 5 0.000000 18.860001 3.610000 16.980000 # O TiO
359 1 5 0.000000 1.030000 3.700000 17.139999 # O TiO
360 1 5 0.000000 9.940000 14.830000 17.010000 # O TiO
361 2 3 0.000000 15.850000 12.210000 26.240000 # H NOR
362 2 3 0.000000 10.220000 9.070000 26.379999 # H NOR
363 2 3 0.000000 14.130000 11.810000 26.040001 # H NOR
364 2 3 0.000000 8.010000 8.050000 26.150000 # H NOR
365 2 1 0.000000 14.990000 12.300000 25.559999 # C NOR
366 2 3 0.000000 14.760000 13.370000 25.450001 # H NOR
367 2 3 0.000000 10.390000 7.360000 25.930000 # H NOR
368 2 1 0.000000 10.070000 8.340000 25.570000 # C NOR
369 2 3 0.000000 16.730000 6.880000 25.549999 # H NOR
370 2 1 0.000000 8.570000 8.290000 25.240000 # C NOR
371 2 4 0.000000 8.140000 9.620000 24.740000 # N NOR
372 2 3 0.000000 10.560000 10.880000 24.500000 # H NOR
373 2 5 0.000000 19.440001 7.300000 25.120001 # O NOR
374 2 3 0.000000 14.400000 5.750000 24.559999 # H NOR
375 2 3 0.000000 20.590000 8.960000 24.959999 # H NOR
376 2 1 0.000000 18.920000 8.370000 24.809999 # C NOR
377 2 5 0.000000 19.760000 9.420000 24.709999 # O NOR
378 2 1 0.000000 14.120000 6.800000 24.500000 # C NOR
379 2 1 0.000000 16.590000 7.440000 24.610001 # C NOR
380 2 1 0.000000 17.500000 8.640000 24.610001 # C NOR
381 2 1 0.000000 15.110000 7.820000 24.459999 # C NOR
382 2 3 0.000000 7.140000 9.620000 24.549999 # H NOR
383 2 1 0.000000 12.770000 7.100000 24.450001 # C NOR
384 2 2 0.000000 11.910000 6.030000 24.490000 # F NOR
385 2 1 0.000000 12.280000 8.440000 24.360001 # C NOR
386 2 1 0.000000 17.010000 9.910000 24.420000 # C NOR
387 2 1 0.000000 14.670000 9.170000 24.330000 # C NOR
388 2 3 0.000000 17.700001 10.750000 24.410000 # H NOR
389 2 1 0.000000 13.280000 9.450000 24.280001 # C NOR
390 2 1 0.000000 15.310000 11.670000 24.190001 # C NOR
391 2 3 0.000000 12.920000 10.470000 24.209999 # H NOR
392 2 4 0.000000 10.870000 8.740000 24.350000 # N NOR
393 2 4 0.000000 15.670000 10.230000 24.270000 # N NOR
394 2 3 0.000000 8.400000 7.470000 24.500000 # H NOR
395 2 3 0.000000 16.160000 12.200000 23.740000 # H NOR
396 2 1 0.000000 10.390000 10.040000 23.799999 # C NOR
397 2 3 0.000000 16.879999 6.740000 23.809999 # H NOR
398 2 3 0.000000 14.480000 11.810000 23.480000 # H NOR
399 2 1 0.000000 8.880000 9.980000 23.500000 # C NOR
400 2 3 0.000000 8.540000 10.960000 23.150000 # H NOR
401 2 3 0.000000 10.920000 10.240000 22.860001 # H NOR
402 2 3 0.000000 8.710000 9.250000 22.680000 # H NOR
403 3 5 0.000000 19.840000 6.980000 27.799999 # O SOL
404 3 3 0.000000 20.830000 6.820000 27.980000 # H SOL
405 3 3 0.000000 19.719999 7.100000 26.809999 # H SOL
406 4 5 0.000000 23.370001 3.330000 37.090000 # O SOL
407 4 3 0.000000 23.870001 2.680000 36.490002 # H SOL
408 4 3 0.000000 22.750000 3.880000 36.509998 # H SOL
409 5 5 0.000000 24.020000 6.330000 34.910000 # O SOL
410 5 3 0.000000 23.790001 6.820000 34.060001 # H SOL
411 5 3 0.000000 23.219999 5.770000 35.189999 # H SOL
412 6 5 0.000000 26.340000 12.980000 37.439999 # O SOL
413 6 3 0.000000 26.059999 12.010000 37.509998 # H SOL
414 6 3 0.000000 26.200001 13.420000 38.349998 # H SOL
415 7 5 0.000000 2.160000 0.810000 26.430000 # O SOL
416 7 3 0.000000 2.990000 1.310000 26.719999 # H SOL
417 7 3 0.000000 1.360000 1.230000 26.889999 # H SOL
418 8 5 0.000000 5.630000 4.400000 37.900002 # O SOL
419 8 3 0.000000 6.630000 4.390000 38.090000 # H SOL
420 8 3 0.000000 5.160000 4.800000 38.700001 # H SOL
421 9 5 0.000000 14.220000 8.610000 35.340000 # O SOL
422 9 3 0.000000 13.670000 8.580000 36.189999 # H SOL
423 9 3 0.000000 14.680000 9.510000 35.279999 # H SOL
424 10 5 0.000000 9.440000 16.930000 39.299999 # O SOL
425 10 3 0.000000 10.180000 16.270000 39.080002 # H SOL
426 10 3 0.000000 9.640000 17.320000 40.209999 # H SOL
427 11 5 0.000000 0.580000 9.260000 39.660000 # O SOL
428 11 3 0.000000 0.750000 9.870000 40.459999 # H SOL
429 11 3 0.000000 1.420000 8.720000 39.500000 # H SOL
430 12 5 0.000000 11.490000 2.970000 30.930000 # O SOL
431 12 3 0.000000 10.740000 3.160000 30.270000 # H SOL
432 12 3 0.000000 11.160000 3.210000 31.860001 # H SOL
433 13 5 0.000000 3.570000 12.120000 30.920000 # O SOL
434 13 3 0.000000 4.490000 12.440000 30.650000 # H SOL
435 13 3 0.000000 3.550000 11.110000 30.830000 # H SOL
436 14 5 0.000000 6.440000 16.990000 25.520000 # O SOL
437 14 3 0.000000 6.280000 17.980000 25.530001 # H SOL
438 14 3 0.000000 6.150000 16.600000 26.410000 # H SOL
439 15 5 0.000000 21.150000 12.010000 34.009998 # O SOL
440 15 3 0.000000 20.190001 12.200000 34.279999 # H SOL
441 15 3 0.000000 21.680000 11.820000 34.849998 # H SOL
442 16 5 0.000000 19.790001 17.840000 38.020000 # O SOL
443 16 3 0.000000 20.190001 0.214000 38.000000 # H SOL
444 16 3 0.000000 19.000000 17.830000 37.389999 # H SOL
445 17 5 0.000000 25.870001 10.220000 31.139999 # O SOL
446 17 3 0.000000 26.700001 10.420000 31.680000 # H SOL
447 17 3 0.000000 25.629999 11.040000 30.620001 # H SOL
448 18 5 0.000000 15.070000 5.440000 29.680000 # O SOL
449 18 3 0.000000 15.670000 5.820000 30.400000 # H SOL
450 18 3 0.000000 15.570000 5.470000 28.799999 # H SOL
451 19 5 0.000000 10.790000 13.110000 44.310001 # O SOL
452 19 3 0.000000 11.740000 13.450000 44.259998 # H SOL
453 19 3 0.000000 10.810000 12.100000 44.279999 # H SOL
454 20 5 0.000000 8.790000 0.720000 35.700001 # O SOL
455 20 3 0.000000 8.430000 0.920000 34.779999 # H SOL
456 20 3 0.000000 9.560000 1.350000 35.889999 # H SOL
457 21 5 0.000000 12.830000 8.310000 37.660000 # O SOL
458 21 3 0.000000 11.830000 8.250000 37.799999 # H SOL
459 21 3 0.000000 13.210000 7.380000 37.779999 # H SOL
460 22 5 0.000000 4.490000 13.760000 24.430000 # O SOL
461 22 3 0.000000 4.820000 13.560000 25.360001 # H SOL
462 22 3 0.000000 3.870000 14.550000 24.469999 # H SOL
463 23 5 0.000000 24.559999 10.150000 19.129999 # O SOL
464 23 3 0.000000 24.219999 10.960000 19.639999 # H SOL
465 23 3 0.000000 23.840000 9.850000 18.490000 # H SOL
466 24 5 0.000000 6.020000 12.960000 30.270000 # O SOL
467 24 3 0.000000 6.800000 13.130000 30.889999 # H SOL
468 24 3 0.000000 6.370000 12.430000 29.480000 # H SOL
469 25 5 0.000000 19.350000 0.710000 26.840000 # O SOL
470 25 3 0.000000 18.530001 1.040000 26.340000 # H SOL
471 25 3 0.000000 19.950001 0.230000 26.180000 # H SOL
472 26 5 0.000000 19.900000 6.810000 33.619999 # O SOL
473 26 3 0.000000 19.520000 6.650000 34.549999 # H SOL
474 26 3 0.000000 20.559999 6.070000 33.419998 # H SOL
475 27 5 0.000000 0.160000 15.100000 35.869999 # O SOL
476 27 3 0.000000 26.472000 15.310000 35.220001 # H SOL
477 27 3 0.000000 26.931999 14.310000 36.430000 # H SOL
478 28 5 0.000000 4.460000 10.870000 36.740002 # O SOL
479 28 3 0.000000 4.700000 10.220000 37.470001 # H SOL
480 28 3 0.000000 4.280000 11.770000 37.160000 # H SOL
481 29 5 0.000000 8.550000 15.060000 36.070000 # O SOL
482 29 3 0.000000 8.310000 14.290000 35.459999 # H SOL
483 29 3 0.000000 9.330000 15.550000 35.650002 # H SOL
484 30 5 0.000000 25.170000 7.510000 30.809999 # O SOL
485 30 3 0.000000 25.840000 7.010000 31.379999 # H SOL
486 30 3 0.000000 25.420000 8.490000 30.820000 # H SOL
487 31 5 0.000000 23.559999 2.770000 26.760000 # O SOL
488 31 3 0.000000 23.530001 3.750000 26.510000 # H SOL
489 31 3 0.000000 24.200001 2.660000 27.530001 # H SOL
490 32 5 0.000000 24.750000 6.580000 38.759998 # O SOL
491 32 3 0.000000 25.469999 6.500000 38.060001 # H SOL
492 32 3 0.000000 23.860001 6.660000 38.299999 # H SOL
493 33 5 0.000000 12.770000 4.290000 28.740000 # O SOL
494 33 3 0.000000 13.550000 4.860000 29.030001 # H SOL
495 33 3 0.000000 12.620000 3.580000 29.450001 # H SOL
496 34 5 0.000000 8.260000 12.910000 34.480000 # O SOL
497 34 3 0.000000 8.180000 12.920000 33.480000 # H SOL
498 34 3 0.000000 7.810000 12.070000 34.830002 # H SOL
499 35 5 0.000000 5.290000 9.350000 38.830002 # O SOL
500 35 3 0.000000 5.440000 10.040000 39.560001 # H SOL
501 35 3 0.000000 6.110000 8.750000 38.799999 # H SOL
502 36 5 0.000000 11.670000 5.020000 42.480000 # O SOL
503 36 3 0.000000 12.110000 5.350000 43.330002 # H SOL
504 36 3 0.000000 11.260000 5.820000 42.009998 # H SOL
505 37 5 0.000000 24.420000 16.090000 38.360001 # O SOL
506 37 3 0.000000 24.940001 16.250000 39.220001 # H SOL
507 37 3 0.000000 24.000000 16.969999 38.080002 # H SOL
508 38 5 0.000000 1.550000 11.660000 38.290001 # O SOL
509 38 3 0.000000 1.210000 10.720000 38.410000 # H SOL
510 38 3 0.000000 0.800000 12.220000 37.900002 # H SOL
511 39 5 0.000000 3.210000 9.260000 31.570000 # O SOL
512 39 3 0.000000 2.310000 9.630000 31.870001 # H SOL
513 39 3 0.000000 3.100000 8.900000 30.629999 # H SOL
514 40 5 0.000000 24.360001 15.770000 26.730000 # O SOL
515 40 3 0.000000 24.820000 16.070000 27.580000 # H SOL
516 40 3 0.000000 24.540001 14.780000 26.600000 # H SOL
517 41 5 0.000000 2.810000 11.410000 40.700001 # O SOL
518 41 3 0.000000 2.270000 11.870000 41.419998 # H SOL
519 41 3 0.000000 2.350000 11.570000 39.810001 # H SOL
520 42 5 0.000000 11.000000 10.450000 43.700001 # O SOL
521 42 3 0.000000 11.440000 10.730000 42.830002 # H SOL
522 42 3 0.000000 10.130000 9.980000 43.470001 # H SOL
523 43 5 0.000000 2.700000 10.030000 20.260000 # O SOL
524 43 3 0.000000 3.260000 10.480000 19.549999 # H SOL
525 43 3 0.000000 1.790000 9.820000 19.860001 # H SOL
526 44 5 0.000000 1.070000 17.510000 21.139999 # O SOL
527 44 3 0.000000 0.660000 16.590000 21.260000 # H SOL
528 44 3 0.000000 2.050000 17.440001 21.379999 # H SOL
529 45 5 0.000000 10.490000 16.150000 34.380001 # O SOL
530 45 3 0.000000 10.820000 15.460000 33.709999 # H SOL
531 45 3 0.000000 9.790000 16.719999 33.930000 # H SOL
532 46 5 0.000000 16.900000 9.040000 38.380001 # O SOL
533 46 3 0.000000 17.020000 9.040000 39.380001 # H SOL
534 46 3 0.000000 16.040001 9.530000 38.160000 # H SOL
535 47 5 0.000000 23.030001 9.810000 38.160000 # O SOL
536 47 3 0.000000 22.850000 10.420000 37.380001 # H SOL
537 47 3 0.000000 22.910000 8.850000 37.849998 # H SOL
538 48 5 0.000000 9.860000 18.309999 41.570000 # O SOL
539 48 3 0.000000 9.220000 0.524000 41.439999 # H SOL
540 48 3 0.000000 10.800000 0.124000 41.520000 # H SOL
541 49 5 0.000000 9.970000 8.200000 37.650002 # O SOL
542 49 3 0.000000 9.940000 8.920000 36.939999 # H SOL
543 49 3 0.000000 10.200000 7.320000 37.209999 # H SOL